
Host: WE41476

Timers On : Wed Nov 24 21:45:48 2021
Timers Off: Wed Nov 24 21:45:51 2021

Wall Time:        2.18 seconds

                                                       Time (seconds)
Module                                       User      System        Wall        Calls
V: Grid                             :      0.033u      0.017s      0.021w      1 calls
DFH: sparsity prep                  :      0.017u      0.000s      0.012w      1 calls
DFH: initialize()                   :      0.067u      0.017s      0.045w      1 calls
DFH: AO Construction                :      0.017u      0.000s      0.015w      1 calls
DFH: AO-Met. Contraction            :      0.017u      0.000s      0.006w      1 calls
HF: Form core H                     :      0.000u      0.000s      0.003w      1 calls
HF: Form S/X                        :      0.000u      0.000s      0.001w      1 calls
HF: Guess                           :      0.050u      0.017s      0.038w      1 calls
SAD Guess                           :      0.050u      0.017s      0.037w      1 calls
HF: Form G                          :      0.750u      0.017s      0.456w      7 calls
RV: Form V                          :      0.750u      0.017s      0.448w      7 calls
Properties                          :      0.183u      0.000s      0.114w   3136 calls
Functional                          :      0.267u      0.000s      0.172w   3136 calls
V_xc                                :      0.267u      0.000s      0.147w   3136 calls
JK: D                               :      0.000u      0.000s      0.000w      7 calls
JK: USO2AO                          :      0.000u      0.000s      0.000w      7 calls
JK: JK                              :      0.000u      0.000s      0.007w      7 calls
DFH: compute_JK()                   :      0.000u      0.000s      0.007w      7 calls
DFH: Grabbing AOs                   :      0.000u      0.000s      0.000w      7 calls
DFH: compute_J                      :      0.000u      0.000s      0.002w      7 calls
DFH: compute_K                      :      0.000u      0.000s      0.005w      7 calls
JK: AO2USO                          :      0.000u      0.000s      0.000w      7 calls
HF: Form F                          :      0.000u      0.000s      0.000w      7 calls
HF: Form D                          :      0.000u      0.000s      0.000w      7 calls
HF: DIIS                            :      0.000u      0.000s      0.005w      6 calls
DIISManager::add_entry              :      0.000u      0.000s      0.001w      6 calls
DIISManager::extrapolate            :      0.000u      0.000s      0.001w      6 calls
bMatrix setup                       :      0.000u      0.000s      0.000w      6 calls
bMatrix pseudoinverse               :      0.000u      0.000s      0.000w      6 calls
New vector                          :      0.000u      0.000s      0.000w      6 calls
HF: Form C                          :      0.000u      0.000s      0.002w      6 calls

--------------------------------------------------------------------------------------
V: Grid                             :      0.033u      0.017s      0.021w      1 calls
DFH: sparsity prep                  :      0.017u      0.000s      0.012w      1 calls
DFH: initialize()                   :      0.067u      0.017s      0.045w      1 calls
| DFH: AO Construction              :      0.017u      0.000s      0.015w      1 calls
| DFH: AO-Met. Contraction          :      0.017u      0.000s      0.006w      1 calls
HF: Form core H                     :      0.000u      0.000s      0.003w      1 calls
HF: Form S/X                        :      0.000u      0.000s      0.001w      1 calls
HF: Guess                           :      0.050u      0.017s      0.038w      1 calls
| SAD Guess                         :      0.050u      0.017s      0.037w      1 calls
HF: Form G                          :      0.750u      0.017s      0.456w      7 calls
| RV: Form V                        :      0.750u      0.017s      0.448w      7 calls
| | Properties                      :      0.183u      0.000s      0.114w   3136 calls
| | Functional                      :      0.267u      0.000s      0.172w   3136 calls
| | V_xc                            :      0.267u      0.000s      0.147w   3136 calls
| JK: D                             :      0.000u      0.000s      0.000w      7 calls
| JK: USO2AO                        :      0.000u      0.000s      0.000w      7 calls
| JK: JK                            :      0.000u      0.000s      0.007w      7 calls
| | DFH: compute_JK()               :      0.000u      0.000s      0.007w      7 calls
| | | DFH: Grabbing AOs             :      0.000u      0.000s      0.000w      7 calls
| | | DFH: compute_J                :      0.000u      0.000s      0.002w      7 calls
| | | DFH: compute_K                :      0.000u      0.000s      0.005w      7 calls
| JK: AO2USO                        :      0.000u      0.000s      0.000w      7 calls
HF: Form F                          :      0.000u      0.000s      0.000w      7 calls
HF: Form D                          :      0.000u      0.000s      0.000w      7 calls
HF: DIIS                            :      0.000u      0.000s      0.005w      6 calls
| DIISManager::add_entry            :      0.000u      0.000s      0.001w      6 calls
| DIISManager::extrapolate          :      0.000u      0.000s      0.001w      6 calls
| | bMatrix setup                   :      0.000u      0.000s      0.000w      6 calls
| | bMatrix pseudoinverse           :      0.000u      0.000s      0.000w      6 calls
| | New vector                      :      0.000u      0.000s      0.000w      6 calls
HF: Form C                          :      0.000u      0.000s      0.002w      6 calls

**************************************************************************************

Host: WE41476

Timers On : Wed Nov 24 21:46:04 2021
Timers Off: Wed Nov 24 21:46:05 2021

Wall Time:        1.58 seconds

                                                       Time (seconds)
Module                                       User      System        Wall        Calls
V: Grid                             :      0.033u      0.000s      0.021w      1 calls
DFH: sparsity prep                  :      0.033u      0.000s      0.011w      1 calls
DFH: initialize()                   :      0.067u      0.017s      0.043w      1 calls
DFH: AO Construction                :      0.033u      0.000s      0.015w      1 calls
DFH: AO-Met. Contraction            :      0.000u      0.017s      0.005w      1 calls
HF: Form core H                     :      0.000u      0.000s      0.003w      1 calls
HF: Form S/X                        :      0.000u      0.000s      0.001w      1 calls
HF: Guess                           :      0.050u      0.000s      0.037w      1 calls
SAD Guess                           :      0.050u      0.000s      0.036w      1 calls
HF: Form G                          :      0.750u      0.017s      0.455w      7 calls
RV: Form V                          :      0.750u      0.017s      0.447w      7 calls
Properties                          :      0.200u      0.000s      0.111w   3136 calls
Functional                          :      0.283u      0.000s      0.174w   3136 calls
V_xc                                :      0.267u      0.000s      0.148w   3136 calls
JK: D                               :      0.000u      0.000s      0.000w      7 calls
JK: USO2AO                          :      0.000u      0.000s      0.000w      7 calls
JK: JK                              :      0.000u      0.000s      0.007w      7 calls
DFH: compute_JK()                   :      0.000u      0.000s      0.007w      7 calls
DFH: Grabbing AOs                   :      0.000u      0.000s      0.000w      7 calls
DFH: compute_J                      :      0.000u      0.000s      0.002w      7 calls
DFH: compute_K                      :      0.000u      0.000s      0.005w      7 calls
JK: AO2USO                          :      0.000u      0.000s      0.000w      7 calls
HF: Form F                          :      0.000u      0.000s      0.000w      7 calls
HF: Form D                          :      0.000u      0.000s      0.000w      7 calls
HF: DIIS                            :      0.000u      0.000s      0.005w      6 calls
DIISManager::add_entry              :      0.000u      0.000s      0.001w      6 calls
DIISManager::extrapolate            :      0.000u      0.000s      0.001w      6 calls
bMatrix setup                       :      0.000u      0.000s      0.000w      6 calls
bMatrix pseudoinverse               :      0.000u      0.000s      0.000w      6 calls
New vector                          :      0.000u      0.000s      0.000w      6 calls
HF: Form C                          :      0.000u      0.000s      0.002w      6 calls

--------------------------------------------------------------------------------------
V: Grid                             :      0.033u      0.000s      0.021w      1 calls
DFH: sparsity prep                  :      0.033u      0.000s      0.011w      1 calls
DFH: initialize()                   :      0.067u      0.017s      0.043w      1 calls
| DFH: AO Construction              :      0.033u      0.000s      0.015w      1 calls
| DFH: AO-Met. Contraction          :      0.000u      0.017s      0.005w      1 calls
HF: Form core H                     :      0.000u      0.000s      0.003w      1 calls
HF: Form S/X                        :      0.000u      0.000s      0.001w      1 calls
HF: Guess                           :      0.050u      0.000s      0.037w      1 calls
| SAD Guess                         :      0.050u      0.000s      0.036w      1 calls
HF: Form G                          :      0.750u      0.017s      0.455w      7 calls
| RV: Form V                        :      0.750u      0.017s      0.447w      7 calls
| | Properties                      :      0.200u      0.000s      0.111w   3136 calls
| | Functional                      :      0.283u      0.000s      0.174w   3136 calls
| | V_xc                            :      0.267u      0.000s      0.148w   3136 calls
| JK: D                             :      0.000u      0.000s      0.000w      7 calls
| JK: USO2AO                        :      0.000u      0.000s      0.000w      7 calls
| JK: JK                            :      0.000u      0.000s      0.007w      7 calls
| | DFH: compute_JK()               :      0.000u      0.000s      0.007w      7 calls
| | | DFH: Grabbing AOs             :      0.000u      0.000s      0.000w      7 calls
| | | DFH: compute_J                :      0.000u      0.000s      0.002w      7 calls
| | | DFH: compute_K                :      0.000u      0.000s      0.005w      7 calls
| JK: AO2USO                        :      0.000u      0.000s      0.000w      7 calls
HF: Form F                          :      0.000u      0.000s      0.000w      7 calls
HF: Form D                          :      0.000u      0.000s      0.000w      7 calls
HF: DIIS                            :      0.000u      0.000s      0.005w      6 calls
| DIISManager::add_entry            :      0.000u      0.000s      0.001w      6 calls
| DIISManager::extrapolate          :      0.000u      0.000s      0.001w      6 calls
| | bMatrix setup                   :      0.000u      0.000s      0.000w      6 calls
| | bMatrix pseudoinverse           :      0.000u      0.000s      0.000w      6 calls
| | New vector                      :      0.000u      0.000s      0.000w      6 calls
HF: Form C                          :      0.000u      0.000s      0.002w      6 calls

**************************************************************************************

Host: WE41476

Timers On : Wed Nov 24 21:47:12 2021
Timers Off: Wed Nov 24 21:47:14 2021

Wall Time:        1.57 seconds

                                                       Time (seconds)
Module                                       User      System        Wall        Calls
V: Grid                             :      0.033u      0.000s      0.022w      1 calls
DFH: sparsity prep                  :      0.017u      0.000s      0.011w      1 calls
DFH: initialize()                   :      0.067u      0.017s      0.050w      1 calls
DFH: AO Construction                :      0.033u      0.000s      0.022w      1 calls
DFH: AO-Met. Contraction            :      0.000u      0.000s      0.005w      1 calls
HF: Form core H                     :      0.000u      0.000s      0.003w      1 calls
HF: Form S/X                        :      0.000u      0.000s      0.001w      1 calls
HF: Guess                           :      0.067u      0.017s      0.038w      1 calls
SAD Guess                           :      0.067u      0.017s      0.037w      1 calls
HF: Form G                          :      0.750u      0.017s      0.453w      7 calls
RV: Form V                          :      0.750u      0.017s      0.445w      7 calls
Properties                          :      0.317u      0.000s      0.112w   3136 calls
Functional                          :      0.183u      0.000s      0.172w   3136 calls
V_xc                                :      0.233u      0.000s      0.146w   3136 calls
JK: D                               :      0.000u      0.000s      0.000w      7 calls
JK: USO2AO                          :      0.000u      0.000s      0.000w      7 calls
JK: JK                              :      0.000u      0.000s      0.008w      7 calls
DFH: compute_JK()                   :      0.000u      0.000s      0.008w      7 calls
DFH: Grabbing AOs                   :      0.000u      0.000s      0.000w      7 calls
DFH: compute_J                      :      0.000u      0.000s      0.002w      7 calls
DFH: compute_K                      :      0.000u      0.000s      0.005w      7 calls
JK: AO2USO                          :      0.000u      0.000s      0.000w      7 calls
HF: Form F                          :      0.000u      0.000s      0.000w      7 calls
HF: Form D                          :      0.000u      0.000s      0.000w      7 calls
HF: DIIS                            :      0.000u      0.000s      0.005w      6 calls
DIISManager::add_entry              :      0.000u      0.000s      0.001w      6 calls
DIISManager::extrapolate            :      0.000u      0.000s      0.001w      6 calls
bMatrix setup                       :      0.000u      0.000s      0.000w      6 calls
bMatrix pseudoinverse               :      0.000u      0.000s      0.000w      6 calls
New vector                          :      0.000u      0.000s      0.000w      6 calls
HF: Form C                          :      0.000u      0.000s      0.002w      6 calls

--------------------------------------------------------------------------------------
V: Grid                             :      0.033u      0.000s      0.022w      1 calls
DFH: sparsity prep                  :      0.017u      0.000s      0.011w      1 calls
DFH: initialize()                   :      0.067u      0.017s      0.050w      1 calls
| DFH: AO Construction              :      0.033u      0.000s      0.022w      1 calls
| DFH: AO-Met. Contraction          :      0.000u      0.000s      0.005w      1 calls
HF: Form core H                     :      0.000u      0.000s      0.003w      1 calls
HF: Form S/X                        :      0.000u      0.000s      0.001w      1 calls
HF: Guess                           :      0.067u      0.017s      0.038w      1 calls
| SAD Guess                         :      0.067u      0.017s      0.037w      1 calls
HF: Form G                          :      0.750u      0.017s      0.453w      7 calls
| RV: Form V                        :      0.750u      0.017s      0.445w      7 calls
| | Properties                      :      0.317u      0.000s      0.112w   3136 calls
| | Functional                      :      0.183u      0.000s      0.172w   3136 calls
| | V_xc                            :      0.233u      0.000s      0.146w   3136 calls
| JK: D                             :      0.000u      0.000s      0.000w      7 calls
| JK: USO2AO                        :      0.000u      0.000s      0.000w      7 calls
| JK: JK                            :      0.000u      0.000s      0.008w      7 calls
| | DFH: compute_JK()               :      0.000u      0.000s      0.008w      7 calls
| | | DFH: Grabbing AOs             :      0.000u      0.000s      0.000w      7 calls
| | | DFH: compute_J                :      0.000u      0.000s      0.002w      7 calls
| | | DFH: compute_K                :      0.000u      0.000s      0.005w      7 calls
| JK: AO2USO                        :      0.000u      0.000s      0.000w      7 calls
HF: Form F                          :      0.000u      0.000s      0.000w      7 calls
HF: Form D                          :      0.000u      0.000s      0.000w      7 calls
HF: DIIS                            :      0.000u      0.000s      0.005w      6 calls
| DIISManager::add_entry            :      0.000u      0.000s      0.001w      6 calls
| DIISManager::extrapolate          :      0.000u      0.000s      0.001w      6 calls
| | bMatrix setup                   :      0.000u      0.000s      0.000w      6 calls
| | bMatrix pseudoinverse           :      0.000u      0.000s      0.000w      6 calls
| | New vector                      :      0.000u      0.000s      0.000w      6 calls
HF: Form C                          :      0.000u      0.000s      0.002w      6 calls

**************************************************************************************

Host: WE41476

Timers On : Wed Nov 24 21:47:48 2021
Timers Off: Wed Nov 24 21:47:49 2021

Wall Time:        1.59 seconds

                                                       Time (seconds)
Module                                       User      System        Wall        Calls
V: Grid                             :      0.033u      0.000s      0.021w      1 calls
DFH: sparsity prep                  :      0.017u      0.000s      0.011w      1 calls
DFH: initialize()                   :      0.067u      0.017s      0.042w      1 calls
DFH: AO Construction                :      0.033u      0.000s      0.015w      1 calls
DFH: AO-Met. Contraction            :      0.000u      0.017s      0.005w      1 calls
HF: Form core H                     :      0.000u      0.000s      0.002w      1 calls
HF: Form S/X                        :      0.000u      0.000s      0.001w      1 calls
HF: Guess                           :      0.067u      0.000s      0.037w      1 calls
SAD Guess                           :      0.067u      0.000s      0.036w      1 calls
HF: Form G                          :      0.767u      0.017s      0.467w      7 calls
RV: Form V                          :      0.750u      0.017s      0.459w      7 calls
Properties                          :      0.150u      0.000s      0.117w   3136 calls
Functional                          :      0.383u      0.000s      0.177w   3136 calls
V_xc                                :      0.200u      0.000s      0.151w   3136 calls
JK: D                               :      0.000u      0.000s      0.000w      7 calls
JK: USO2AO                          :      0.000u      0.000s      0.000w      7 calls
JK: JK                              :      0.017u      0.000s      0.007w      7 calls
DFH: compute_JK()                   :      0.017u      0.000s      0.007w      7 calls
DFH: Grabbing AOs                   :      0.000u      0.000s      0.000w      7 calls
DFH: compute_J                      :      0.017u      0.000s      0.002w      7 calls
DFH: compute_K                      :      0.000u      0.000s      0.005w      7 calls
JK: AO2USO                          :      0.000u      0.000s      0.000w      7 calls
HF: Form F                          :      0.000u      0.000s      0.000w      7 calls
HF: Form D                          :      0.000u      0.000s      0.000w      7 calls
HF: DIIS                            :      0.000u      0.000s      0.005w      6 calls
DIISManager::add_entry              :      0.000u      0.000s      0.001w      6 calls
DIISManager::extrapolate            :      0.000u      0.000s      0.001w      6 calls
bMatrix setup                       :      0.000u      0.000s      0.000w      6 calls
bMatrix pseudoinverse               :      0.000u      0.000s      0.000w      6 calls
New vector                          :      0.000u      0.000s      0.000w      6 calls
HF: Form C                          :      0.000u      0.000s      0.002w      6 calls

--------------------------------------------------------------------------------------
V: Grid                             :      0.033u      0.000s      0.021w      1 calls
DFH: sparsity prep                  :      0.017u      0.000s      0.011w      1 calls
DFH: initialize()                   :      0.067u      0.017s      0.042w      1 calls
| DFH: AO Construction              :      0.033u      0.000s      0.015w      1 calls
| DFH: AO-Met. Contraction          :      0.000u      0.017s      0.005w      1 calls
HF: Form core H                     :      0.000u      0.000s      0.002w      1 calls
HF: Form S/X                        :      0.000u      0.000s      0.001w      1 calls
HF: Guess                           :      0.067u      0.000s      0.037w      1 calls
| SAD Guess                         :      0.067u      0.000s      0.036w      1 calls
HF: Form G                          :      0.767u      0.017s      0.467w      7 calls
| RV: Form V                        :      0.750u      0.017s      0.459w      7 calls
| | Properties                      :      0.150u      0.000s      0.117w   3136 calls
| | Functional                      :      0.383u      0.000s      0.177w   3136 calls
| | V_xc                            :      0.200u      0.000s      0.151w   3136 calls
| JK: D                             :      0.000u      0.000s      0.000w      7 calls
| JK: USO2AO                        :      0.000u      0.000s      0.000w      7 calls
| JK: JK                            :      0.017u      0.000s      0.007w      7 calls
| | DFH: compute_JK()               :      0.017u      0.000s      0.007w      7 calls
| | | DFH: Grabbing AOs             :      0.000u      0.000s      0.000w      7 calls
| | | DFH: compute_J                :      0.017u      0.000s      0.002w      7 calls
| | | DFH: compute_K                :      0.000u      0.000s      0.005w      7 calls
| JK: AO2USO                        :      0.000u      0.000s      0.000w      7 calls
HF: Form F                          :      0.000u      0.000s      0.000w      7 calls
HF: Form D                          :      0.000u      0.000s      0.000w      7 calls
HF: DIIS                            :      0.000u      0.000s      0.005w      6 calls
| DIISManager::add_entry            :      0.000u      0.000s      0.001w      6 calls
| DIISManager::extrapolate          :      0.000u      0.000s      0.001w      6 calls
| | bMatrix setup                   :      0.000u      0.000s      0.000w      6 calls
| | bMatrix pseudoinverse           :      0.000u      0.000s      0.000w      6 calls
| | New vector                      :      0.000u      0.000s      0.000w      6 calls
HF: Form C                          :      0.000u      0.000s      0.002w      6 calls

**************************************************************************************

Host: WE41476

Timers On : Wed Nov 24 21:48:51 2021
Timers Off: Wed Nov 24 21:48:52 2021

Wall Time:        1.61 seconds

                                                       Time (seconds)
Module                                       User      System        Wall        Calls
V: Grid                             :      0.033u      0.000s      0.021w      1 calls
DFH: sparsity prep                  :      0.017u      0.000s      0.011w      1 calls
DFH: initialize()                   :      0.067u      0.000s      0.041w      1 calls
DFH: AO Construction                :      0.017u      0.000s      0.014w      1 calls
DFH: AO-Met. Contraction            :      0.017u      0.000s      0.005w      1 calls
HF: Form core H                     :      0.000u      0.000s      0.003w      1 calls
HF: Form S/X                        :      0.000u      0.000s      0.001w      1 calls
HF: Guess                           :      0.050u      0.017s      0.037w      1 calls
SAD Guess                           :      0.050u      0.017s      0.036w      1 calls
HF: Form G                          :      0.767u      0.017s      0.459w      7 calls
RV: Form V                          :      0.750u      0.017s      0.450w      7 calls
Properties                          :      0.117u      0.000s      0.113w   3136 calls
Functional                          :      0.250u      0.000s      0.175w   3136 calls
V_xc                                :      0.350u      0.017s      0.148w   3136 calls
JK: D                               :      0.000u      0.000s      0.000w      7 calls
JK: USO2AO                          :      0.000u      0.000s      0.000w      7 calls
JK: JK                              :      0.017u      0.000s      0.008w      7 calls
DFH: compute_JK()                   :      0.017u      0.000s      0.008w      7 calls
DFH: Grabbing AOs                   :      0.000u      0.000s      0.000w      7 calls
DFH: compute_J                      :      0.000u      0.000s      0.003w      7 calls
DFH: compute_K                      :      0.017u      0.000s      0.005w      7 calls
JK: AO2USO                          :      0.000u      0.000s      0.000w      7 calls
HF: Form F                          :      0.000u      0.000s      0.000w      7 calls
HF: Form D                          :      0.000u      0.000s      0.000w      7 calls
HF: DIIS                            :      0.000u      0.000s      0.005w      6 calls
DIISManager::add_entry              :      0.000u      0.000s      0.001w      6 calls
DIISManager::extrapolate            :      0.000u      0.000s      0.001w      6 calls
bMatrix setup                       :      0.000u      0.000s      0.000w      6 calls
bMatrix pseudoinverse               :      0.000u      0.000s      0.000w      6 calls
New vector                          :      0.000u      0.000s      0.000w      6 calls
HF: Form C                          :      0.000u      0.000s      0.002w      6 calls

--------------------------------------------------------------------------------------
V: Grid                             :      0.033u      0.000s      0.021w      1 calls
DFH: sparsity prep                  :      0.017u      0.000s      0.011w      1 calls
DFH: initialize()                   :      0.067u      0.000s      0.041w      1 calls
| DFH: AO Construction              :      0.017u      0.000s      0.014w      1 calls
| DFH: AO-Met. Contraction          :      0.017u      0.000s      0.005w      1 calls
HF: Form core H                     :      0.000u      0.000s      0.003w      1 calls
HF: Form S/X                        :      0.000u      0.000s      0.001w      1 calls
HF: Guess                           :      0.050u      0.017s      0.037w      1 calls
| SAD Guess                         :      0.050u      0.017s      0.036w      1 calls
HF: Form G                          :      0.767u      0.017s      0.459w      7 calls
| RV: Form V                        :      0.750u      0.017s      0.450w      7 calls
| | Properties                      :      0.117u      0.000s      0.113w   3136 calls
| | Functional                      :      0.250u      0.000s      0.175w   3136 calls
| | V_xc                            :      0.350u      0.017s      0.148w   3136 calls
| JK: D                             :      0.000u      0.000s      0.000w      7 calls
| JK: USO2AO                        :      0.000u      0.000s      0.000w      7 calls
| JK: JK                            :      0.017u      0.000s      0.008w      7 calls
| | DFH: compute_JK()               :      0.017u      0.000s      0.008w      7 calls
| | | DFH: Grabbing AOs             :      0.000u      0.000s      0.000w      7 calls
| | | DFH: compute_J                :      0.000u      0.000s      0.003w      7 calls
| | | DFH: compute_K                :      0.017u      0.000s      0.005w      7 calls
| JK: AO2USO                        :      0.000u      0.000s      0.000w      7 calls
HF: Form F                          :      0.000u      0.000s      0.000w      7 calls
HF: Form D                          :      0.000u      0.000s      0.000w      7 calls
HF: DIIS                            :      0.000u      0.000s      0.005w      6 calls
| DIISManager::add_entry            :      0.000u      0.000s      0.001w      6 calls
| DIISManager::extrapolate          :      0.000u      0.000s      0.001w      6 calls
| | bMatrix setup                   :      0.000u      0.000s      0.000w      6 calls
| | bMatrix pseudoinverse           :      0.000u      0.000s      0.000w      6 calls
| | New vector                      :      0.000u      0.000s      0.000w      6 calls
HF: Form C                          :      0.000u      0.000s      0.002w      6 calls

**************************************************************************************

Host: WE41476

Timers On : Wed Nov 24 21:49:42 2021
Timers Off: Wed Nov 24 21:49:44 2021

Wall Time:        1.63 seconds

                                                       Time (seconds)
Module                                       User      System        Wall        Calls
V: Grid                             :      0.033u      0.000s      0.021w      1 calls
DFH: sparsity prep                  :      0.017u      0.000s      0.011w      1 calls
DFH: initialize()                   :      0.050u      0.000s      0.043w      1 calls
DFH: AO Construction                :      0.033u      0.000s      0.015w      1 calls
DFH: AO-Met. Contraction            :      0.000u      0.000s      0.005w      1 calls
HF: Form core H                     :      0.000u      0.017s      0.003w      1 calls
HF: Form S/X                        :      0.000u      0.000s      0.001w      1 calls
HF: Guess                           :      0.067u      0.000s      0.038w      1 calls
SAD Guess                           :      0.067u      0.000s      0.037w      1 calls
HF: Form G                          :      0.750u      0.000s      0.460w      7 calls
RV: Form V                          :      0.733u      0.000s      0.452w      7 calls
Properties                          :      0.133u      0.000s      0.115w   3136 calls
Functional                          :      0.350u      0.000s      0.174w   3136 calls
V_xc                                :      0.217u      0.000s      0.149w   3136 calls
JK: D                               :      0.000u      0.000s      0.000w      7 calls
JK: USO2AO                          :      0.000u      0.000s      0.000w      7 calls
JK: JK                              :      0.017u      0.000s      0.007w      7 calls
DFH: compute_JK()                   :      0.017u      0.000s      0.007w      7 calls
DFH: Grabbing AOs                   :      0.000u      0.000s      0.000w      7 calls
DFH: compute_J                      :      0.017u      0.000s      0.002w      7 calls
DFH: compute_K                      :      0.000u      0.000s      0.005w      7 calls
JK: AO2USO                          :      0.000u      0.000s      0.000w      7 calls
HF: Form F                          :      0.000u      0.000s      0.000w      7 calls
HF: Form D                          :      0.000u      0.000s      0.000w      7 calls
HF: DIIS                            :      0.000u      0.017s      0.005w      6 calls
DIISManager::add_entry              :      0.000u      0.000s      0.001w      6 calls
DIISManager::extrapolate            :      0.000u      0.017s      0.001w      6 calls
bMatrix setup                       :      0.000u      0.017s      0.000w      6 calls
bMatrix pseudoinverse               :      0.000u      0.000s      0.000w      6 calls
New vector                          :      0.000u      0.000s      0.000w      6 calls
HF: Form C                          :      0.000u      0.000s      0.002w      6 calls

--------------------------------------------------------------------------------------
V: Grid                             :      0.033u      0.000s      0.021w      1 calls
DFH: sparsity prep                  :      0.017u      0.000s      0.011w      1 calls
DFH: initialize()                   :      0.050u      0.000s      0.043w      1 calls
| DFH: AO Construction              :      0.033u      0.000s      0.015w      1 calls
| DFH: AO-Met. Contraction          :      0.000u      0.000s      0.005w      1 calls
HF: Form core H                     :      0.000u      0.017s      0.003w      1 calls
HF: Form S/X                        :      0.000u      0.000s      0.001w      1 calls
HF: Guess                           :      0.067u      0.000s      0.038w      1 calls
| SAD Guess                         :      0.067u      0.000s      0.037w      1 calls
HF: Form G                          :      0.750u      0.000s      0.460w      7 calls
| RV: Form V                        :      0.733u      0.000s      0.452w      7 calls
| | Properties                      :      0.133u      0.000s      0.115w   3136 calls
| | Functional                      :      0.350u      0.000s      0.174w   3136 calls
| | V_xc                            :      0.217u      0.000s      0.149w   3136 calls
| JK: D                             :      0.000u      0.000s      0.000w      7 calls
| JK: USO2AO                        :      0.000u      0.000s      0.000w      7 calls
| JK: JK                            :      0.017u      0.000s      0.007w      7 calls
| | DFH: compute_JK()               :      0.017u      0.000s      0.007w      7 calls
| | | DFH: Grabbing AOs             :      0.000u      0.000s      0.000w      7 calls
| | | DFH: compute_J                :      0.017u      0.000s      0.002w      7 calls
| | | DFH: compute_K                :      0.000u      0.000s      0.005w      7 calls
| JK: AO2USO                        :      0.000u      0.000s      0.000w      7 calls
HF: Form F                          :      0.000u      0.000s      0.000w      7 calls
HF: Form D                          :      0.000u      0.000s      0.000w      7 calls
HF: DIIS                            :      0.000u      0.017s      0.005w      6 calls
| DIISManager::add_entry            :      0.000u      0.000s      0.001w      6 calls
| DIISManager::extrapolate          :      0.000u      0.017s      0.001w      6 calls
| | bMatrix setup                   :      0.000u      0.017s      0.000w      6 calls
| | bMatrix pseudoinverse           :      0.000u      0.000s      0.000w      6 calls
| | New vector                      :      0.000u      0.000s      0.000w      6 calls
HF: Form C                          :      0.000u      0.000s      0.002w      6 calls

**************************************************************************************

Host: WE41476

Timers On : Wed Nov 24 21:56:19 2021
Timers Off: Wed Nov 24 21:56:20 2021

Wall Time:        1.64 seconds

                                                       Time (seconds)
Module                                       User      System        Wall        Calls
V: Grid                             :      0.033u      0.000s      0.022w      1 calls
DFH: sparsity prep                  :      0.017u      0.000s      0.010w      1 calls
DFH: initialize()                   :      0.050u      0.017s      0.041w      1 calls
DFH: AO Construction                :      0.017u      0.000s      0.015w      1 calls
DFH: AO-Met. Contraction            :      0.000u      0.017s      0.006w      1 calls
HF: Form core H                     :      0.000u      0.000s      0.003w      1 calls
HF: Form S/X                        :      0.000u      0.000s      0.001w      1 calls
HF: Guess                           :      0.067u      0.000s      0.038w      1 calls
SAD Guess                           :      0.050u      0.000s      0.037w      1 calls
HF: Form G                          :      0.767u      0.033s      0.479w      7 calls
RV: Form V                          :      0.767u      0.033s      0.471w      7 calls
Properties                          :      0.183u      0.000s      0.120w   3136 calls
Functional                          :      0.333u      0.017s      0.181w   3136 calls
V_xc                                :      0.250u      0.000s      0.155w   3136 calls
JK: D                               :      0.000u      0.000s      0.000w      7 calls
JK: USO2AO                          :      0.000u      0.000s      0.000w      7 calls
JK: JK                              :      0.000u      0.000s      0.008w      7 calls
DFH: compute_JK()                   :      0.000u      0.000s      0.008w      7 calls
DFH: Grabbing AOs                   :      0.000u      0.000s      0.000w      7 calls
DFH: compute_J                      :      0.000u      0.000s      0.003w      7 calls
DFH: compute_K                      :      0.000u      0.000s      0.005w      7 calls
JK: AO2USO                          :      0.000u      0.000s      0.000w      7 calls
HF: Form F                          :      0.000u      0.000s      0.000w      7 calls
HF: Form D                          :      0.000u      0.000s      0.000w      7 calls
HF: DIIS                            :      0.000u      0.000s      0.005w      6 calls
DIISManager::add_entry              :      0.000u      0.000s      0.001w      6 calls
DIISManager::extrapolate            :      0.000u      0.000s      0.001w      6 calls
bMatrix setup                       :      0.000u      0.000s      0.000w      6 calls
bMatrix pseudoinverse               :      0.000u      0.000s      0.000w      6 calls
New vector                          :      0.000u      0.000s      0.000w      6 calls
HF: Form C                          :      0.000u      0.000s      0.002w      6 calls

--------------------------------------------------------------------------------------
V: Grid                             :      0.033u      0.000s      0.022w      1 calls
DFH: sparsity prep                  :      0.017u      0.000s      0.010w      1 calls
DFH: initialize()                   :      0.050u      0.017s      0.041w      1 calls
| DFH: AO Construction              :      0.017u      0.000s      0.015w      1 calls
| DFH: AO-Met. Contraction          :      0.000u      0.017s      0.006w      1 calls
HF: Form core H                     :      0.000u      0.000s      0.003w      1 calls
HF: Form S/X                        :      0.000u      0.000s      0.001w      1 calls
HF: Guess                           :      0.067u      0.000s      0.038w      1 calls
| SAD Guess                         :      0.050u      0.000s      0.037w      1 calls
HF: Form G                          :      0.767u      0.033s      0.479w      7 calls
| RV: Form V                        :      0.767u      0.033s      0.471w      7 calls
| | Properties                      :      0.183u      0.000s      0.120w   3136 calls
| | Functional                      :      0.333u      0.017s      0.181w   3136 calls
| | V_xc                            :      0.250u      0.000s      0.155w   3136 calls
| JK: D                             :      0.000u      0.000s      0.000w      7 calls
| JK: USO2AO                        :      0.000u      0.000s      0.000w      7 calls
| JK: JK                            :      0.000u      0.000s      0.008w      7 calls
| | DFH: compute_JK()               :      0.000u      0.000s      0.008w      7 calls
| | | DFH: Grabbing AOs             :      0.000u      0.000s      0.000w      7 calls
| | | DFH: compute_J                :      0.000u      0.000s      0.003w      7 calls
| | | DFH: compute_K                :      0.000u      0.000s      0.005w      7 calls
| JK: AO2USO                        :      0.000u      0.000s      0.000w      7 calls
HF: Form F                          :      0.000u      0.000s      0.000w      7 calls
HF: Form D                          :      0.000u      0.000s      0.000w      7 calls
HF: DIIS                            :      0.000u      0.000s      0.005w      6 calls
| DIISManager::add_entry            :      0.000u      0.000s      0.001w      6 calls
| DIISManager::extrapolate          :      0.000u      0.000s      0.001w      6 calls
| | bMatrix setup                   :      0.000u      0.000s      0.000w      6 calls
| | bMatrix pseudoinverse           :      0.000u      0.000s      0.000w      6 calls
| | New vector                      :      0.000u      0.000s      0.000w      6 calls
HF: Form C                          :      0.000u      0.000s      0.002w      6 calls

**************************************************************************************

Host: WE41476

Timers On : Wed Nov 24 21:58:40 2021
Timers Off: Wed Nov 24 21:58:42 2021

Wall Time:        1.71 seconds

                                                       Time (seconds)
Module                                       User      System        Wall        Calls
V: Grid                             :      0.033u      0.017s      0.021w      1 calls
DFH: sparsity prep                  :      0.017u      0.000s      0.010w      1 calls
DFH: initialize()                   :      0.067u      0.000s      0.041w      1 calls
DFH: AO Construction                :      0.017u      0.000s      0.015w      1 calls
DFH: AO-Met. Contraction            :      0.017u      0.000s      0.005w      1 calls
HF: Form core H                     :      0.000u      0.000s      0.003w      1 calls
HF: Form S/X                        :      0.000u      0.000s      0.001w      1 calls
HF: Guess                           :      0.050u      0.000s      0.038w      1 calls
SAD Guess                           :      0.050u      0.000s      0.037w      1 calls
HF: Form G                          :      0.783u      0.000s      0.465w      7 calls
RV: Form V                          :      0.750u      0.000s      0.457w      7 calls
Properties                          :      0.183u      0.000s      0.116w   3136 calls
Functional                          :      0.183u      0.000s      0.177w   3136 calls
V_xc                                :      0.367u      0.000s      0.150w   3136 calls
JK: D                               :      0.000u      0.000s      0.000w      7 calls
JK: USO2AO                          :      0.000u      0.000s      0.000w      7 calls
JK: JK                              :      0.033u      0.000s      0.008w      7 calls
DFH: compute_JK()                   :      0.033u      0.000s      0.008w      7 calls
DFH: Grabbing AOs                   :      0.000u      0.000s      0.000w      7 calls
DFH: compute_J                      :      0.000u      0.000s      0.003w      7 calls
DFH: compute_K                      :      0.033u      0.000s      0.005w      7 calls
JK: AO2USO                          :      0.000u      0.000s      0.000w      7 calls
HF: Form F                          :      0.000u      0.000s      0.000w      7 calls
HF: Form D                          :      0.000u      0.000s      0.000w      7 calls
HF: DIIS                            :      0.000u      0.017s      0.005w      6 calls
DIISManager::add_entry              :      0.000u      0.017s      0.001w      6 calls
DIISManager::extrapolate            :      0.000u      0.000s      0.001w      6 calls
bMatrix setup                       :      0.000u      0.000s      0.000w      6 calls
bMatrix pseudoinverse               :      0.000u      0.000s      0.000w      6 calls
New vector                          :      0.000u      0.000s      0.000w      6 calls
HF: Form C                          :      0.000u      0.000s      0.002w      6 calls

--------------------------------------------------------------------------------------
V: Grid                             :      0.033u      0.017s      0.021w      1 calls
DFH: sparsity prep                  :      0.017u      0.000s      0.010w      1 calls
DFH: initialize()                   :      0.067u      0.000s      0.041w      1 calls
| DFH: AO Construction              :      0.017u      0.000s      0.015w      1 calls
| DFH: AO-Met. Contraction          :      0.017u      0.000s      0.005w      1 calls
HF: Form core H                     :      0.000u      0.000s      0.003w      1 calls
HF: Form S/X                        :      0.000u      0.000s      0.001w      1 calls
HF: Guess                           :      0.050u      0.000s      0.038w      1 calls
| SAD Guess                         :      0.050u      0.000s      0.037w      1 calls
HF: Form G                          :      0.783u      0.000s      0.465w      7 calls
| RV: Form V                        :      0.750u      0.000s      0.457w      7 calls
| | Properties                      :      0.183u      0.000s      0.116w   3136 calls
| | Functional                      :      0.183u      0.000s      0.177w   3136 calls
| | V_xc                            :      0.367u      0.000s      0.150w   3136 calls
| JK: D                             :      0.000u      0.000s      0.000w      7 calls
| JK: USO2AO                        :      0.000u      0.000s      0.000w      7 calls
| JK: JK                            :      0.033u      0.000s      0.008w      7 calls
| | DFH: compute_JK()               :      0.033u      0.000s      0.008w      7 calls
| | | DFH: Grabbing AOs             :      0.000u      0.000s      0.000w      7 calls
| | | DFH: compute_J                :      0.000u      0.000s      0.003w      7 calls
| | | DFH: compute_K                :      0.033u      0.000s      0.005w      7 calls
| JK: AO2USO                        :      0.000u      0.000s      0.000w      7 calls
HF: Form F                          :      0.000u      0.000s      0.000w      7 calls
HF: Form D                          :      0.000u      0.000s      0.000w      7 calls
HF: DIIS                            :      0.000u      0.017s      0.005w      6 calls
| DIISManager::add_entry            :      0.000u      0.017s      0.001w      6 calls
| DIISManager::extrapolate          :      0.000u      0.000s      0.001w      6 calls
| | bMatrix setup                   :      0.000u      0.000s      0.000w      6 calls
| | bMatrix pseudoinverse           :      0.000u      0.000s      0.000w      6 calls
| | New vector                      :      0.000u      0.000s      0.000w      6 calls
HF: Form C                          :      0.000u      0.000s      0.002w      6 calls

**************************************************************************************

Host: WE41476

Timers On : Wed Nov 24 21:59:54 2021
Timers Off: Wed Nov 24 21:59:56 2021

Wall Time:        1.70 seconds

                                                       Time (seconds)
Module                                       User      System        Wall        Calls
V: Grid                             :      0.033u      0.017s      0.021w      1 calls
DFH: sparsity prep                  :      0.017u      0.000s      0.010w      1 calls
DFH: initialize()                   :      0.067u      0.000s      0.042w      1 calls
DFH: AO Construction                :      0.017u      0.000s      0.015w      1 calls
DFH: AO-Met. Contraction            :      0.017u      0.000s      0.005w      1 calls
HF: Form core H                     :      0.000u      0.000s      0.003w      1 calls
HF: Form S/X                        :      0.000u      0.000s      0.001w      1 calls
HF: Guess                           :      0.050u      0.000s      0.038w      1 calls
SAD Guess                           :      0.050u      0.000s      0.037w      1 calls
HF: Form G                          :      0.733u      0.017s      0.465w      7 calls
RV: Form V                          :      0.717u      0.017s      0.456w      7 calls
Properties                          :      0.167u      0.000s      0.117w   3136 calls
Functional                          :      0.300u      0.000s      0.175w   3136 calls
V_xc                                :      0.250u      0.000s      0.150w   3136 calls
JK: D                               :      0.000u      0.000s      0.000w      7 calls
JK: USO2AO                          :      0.000u      0.000s      0.000w      7 calls
JK: JK                              :      0.017u      0.000s      0.008w      7 calls
DFH: compute_JK()                   :      0.017u      0.000s      0.008w      7 calls
DFH: Grabbing AOs                   :      0.000u      0.000s      0.000w      7 calls
DFH: compute_J                      :      0.000u      0.000s      0.003w      7 calls
DFH: compute_K                      :      0.017u      0.000s      0.005w      7 calls
JK: AO2USO                          :      0.000u      0.000s      0.000w      7 calls
HF: Form F                          :      0.000u      0.000s      0.000w      7 calls
HF: Form D                          :      0.000u      0.000s      0.000w      7 calls
HF: DIIS                            :      0.000u      0.000s      0.005w      6 calls
DIISManager::add_entry              :      0.000u      0.000s      0.001w      6 calls
DIISManager::extrapolate            :      0.000u      0.000s      0.001w      6 calls
bMatrix setup                       :      0.000u      0.000s      0.000w      6 calls
bMatrix pseudoinverse               :      0.000u      0.000s      0.000w      6 calls
New vector                          :      0.000u      0.000s      0.000w      6 calls
HF: Form C                          :      0.000u      0.000s      0.002w      6 calls

--------------------------------------------------------------------------------------
V: Grid                             :      0.033u      0.017s      0.021w      1 calls
DFH: sparsity prep                  :      0.017u      0.000s      0.010w      1 calls
DFH: initialize()                   :      0.067u      0.000s      0.042w      1 calls
| DFH: AO Construction              :      0.017u      0.000s      0.015w      1 calls
| DFH: AO-Met. Contraction          :      0.017u      0.000s      0.005w      1 calls
HF: Form core H                     :      0.000u      0.000s      0.003w      1 calls
HF: Form S/X                        :      0.000u      0.000s      0.001w      1 calls
HF: Guess                           :      0.050u      0.000s      0.038w      1 calls
| SAD Guess                         :      0.050u      0.000s      0.037w      1 calls
HF: Form G                          :      0.733u      0.017s      0.465w      7 calls
| RV: Form V                        :      0.717u      0.017s      0.456w      7 calls
| | Properties                      :      0.167u      0.000s      0.117w   3136 calls
| | Functional                      :      0.300u      0.000s      0.175w   3136 calls
| | V_xc                            :      0.250u      0.000s      0.150w   3136 calls
| JK: D                             :      0.000u      0.000s      0.000w      7 calls
| JK: USO2AO                        :      0.000u      0.000s      0.000w      7 calls
| JK: JK                            :      0.017u      0.000s      0.008w      7 calls
| | DFH: compute_JK()               :      0.017u      0.000s      0.008w      7 calls
| | | DFH: Grabbing AOs             :      0.000u      0.000s      0.000w      7 calls
| | | DFH: compute_J                :      0.000u      0.000s      0.003w      7 calls
| | | DFH: compute_K                :      0.017u      0.000s      0.005w      7 calls
| JK: AO2USO                        :      0.000u      0.000s      0.000w      7 calls
HF: Form F                          :      0.000u      0.000s      0.000w      7 calls
HF: Form D                          :      0.000u      0.000s      0.000w      7 calls
HF: DIIS                            :      0.000u      0.000s      0.005w      6 calls
| DIISManager::add_entry            :      0.000u      0.000s      0.001w      6 calls
| DIISManager::extrapolate          :      0.000u      0.000s      0.001w      6 calls
| | bMatrix setup                   :      0.000u      0.000s      0.000w      6 calls
| | bMatrix pseudoinverse           :      0.000u      0.000s      0.000w      6 calls
| | New vector                      :      0.000u      0.000s      0.000w      6 calls
HF: Form C                          :      0.000u      0.000s      0.002w      6 calls

**************************************************************************************

Host: WE41476

Timers On : Wed Nov 24 22:01:01 2021
Timers Off: Wed Nov 24 22:01:03 2021

Wall Time:        1.70 seconds

                                                       Time (seconds)
Module                                       User      System        Wall        Calls
V: Grid                             :      0.033u      0.017s      0.021w      1 calls
DFH: sparsity prep                  :      0.017u      0.000s      0.010w      1 calls
DFH: initialize()                   :      0.067u      0.000s      0.042w      1 calls
DFH: AO Construction                :      0.033u      0.000s      0.014w      1 calls
DFH: AO-Met. Contraction            :      0.000u      0.000s      0.005w      1 calls
HF: Form core H                     :      0.000u      0.000s      0.004w      1 calls
HF: Form S/X                        :      0.000u      0.000s      0.001w      1 calls
HF: Guess                           :      0.067u      0.000s      0.037w      1 calls
SAD Guess                           :      0.067u      0.000s      0.036w      1 calls
HF: Form G                          :      0.750u      0.017s      0.456w      7 calls
RV: Form V                          :      0.750u      0.017s      0.448w      7 calls
Properties                          :      0.217u      0.000s      0.115w   3136 calls
Functional                          :      0.200u      0.000s      0.173w   3136 calls
V_xc                                :      0.300u      0.000s      0.146w   3136 calls
JK: D                               :      0.000u      0.000s      0.000w      7 calls
JK: USO2AO                          :      0.000u      0.000s      0.000w      7 calls
JK: JK                              :      0.000u      0.000s      0.008w      7 calls
DFH: compute_JK()                   :      0.000u      0.000s      0.008w      7 calls
DFH: Grabbing AOs                   :      0.000u      0.000s      0.000w      7 calls
DFH: compute_J                      :      0.000u      0.000s      0.003w      7 calls
DFH: compute_K                      :      0.000u      0.000s      0.005w      7 calls
JK: AO2USO                          :      0.000u      0.000s      0.000w      7 calls
HF: Form F                          :      0.000u      0.000s      0.000w      7 calls
HF: Form D                          :      0.000u      0.000s      0.000w      7 calls
HF: DIIS                            :      0.000u      0.000s      0.005w      6 calls
DIISManager::add_entry              :      0.000u      0.000s      0.001w      6 calls
DIISManager::extrapolate            :      0.000u      0.000s      0.001w      6 calls
bMatrix setup                       :      0.000u      0.000s      0.000w      6 calls
bMatrix pseudoinverse               :      0.000u      0.000s      0.000w      6 calls
New vector                          :      0.000u      0.000s      0.000w      6 calls
HF: Form C                          :      0.000u      0.000s      0.002w      6 calls

--------------------------------------------------------------------------------------
V: Grid                             :      0.033u      0.017s      0.021w      1 calls
DFH: sparsity prep                  :      0.017u      0.000s      0.010w      1 calls
DFH: initialize()                   :      0.067u      0.000s      0.042w      1 calls
| DFH: AO Construction              :      0.033u      0.000s      0.014w      1 calls
| DFH: AO-Met. Contraction          :      0.000u      0.000s      0.005w      1 calls
HF: Form core H                     :      0.000u      0.000s      0.004w      1 calls
HF: Form S/X                        :      0.000u      0.000s      0.001w      1 calls
HF: Guess                           :      0.067u      0.000s      0.037w      1 calls
| SAD Guess                         :      0.067u      0.000s      0.036w      1 calls
HF: Form G                          :      0.750u      0.017s      0.456w      7 calls
| RV: Form V                        :      0.750u      0.017s      0.448w      7 calls
| | Properties                      :      0.217u      0.000s      0.115w   3136 calls
| | Functional                      :      0.200u      0.000s      0.173w   3136 calls
| | V_xc                            :      0.300u      0.000s      0.146w   3136 calls
| JK: D                             :      0.000u      0.000s      0.000w      7 calls
| JK: USO2AO                        :      0.000u      0.000s      0.000w      7 calls
| JK: JK                            :      0.000u      0.000s      0.008w      7 calls
| | DFH: compute_JK()               :      0.000u      0.000s      0.008w      7 calls
| | | DFH: Grabbing AOs             :      0.000u      0.000s      0.000w      7 calls
| | | DFH: compute_J                :      0.000u      0.000s      0.003w      7 calls
| | | DFH: compute_K                :      0.000u      0.000s      0.005w      7 calls
| JK: AO2USO                        :      0.000u      0.000s      0.000w      7 calls
HF: Form F                          :      0.000u      0.000s      0.000w      7 calls
HF: Form D                          :      0.000u      0.000s      0.000w      7 calls
HF: DIIS                            :      0.000u      0.000s      0.005w      6 calls
| DIISManager::add_entry            :      0.000u      0.000s      0.001w      6 calls
| DIISManager::extrapolate          :      0.000u      0.000s      0.001w      6 calls
| | bMatrix setup                   :      0.000u      0.000s      0.000w      6 calls
| | bMatrix pseudoinverse           :      0.000u      0.000s      0.000w      6 calls
| | New vector                      :      0.000u      0.000s      0.000w      6 calls
HF: Form C                          :      0.000u      0.000s      0.002w      6 calls

**************************************************************************************

Host: WE41476

Timers On : Wed Nov 24 22:02:27 2021
Timers Off: Wed Nov 24 22:02:29 2021

Wall Time:        1.62 seconds

                                                       Time (seconds)
Module                                       User      System        Wall        Calls
V: Grid                             :      0.033u      0.017s      0.021w      1 calls
DFH: sparsity prep                  :      0.017u      0.000s      0.011w      1 calls
DFH: initialize()                   :      0.067u      0.000s      0.042w      1 calls
DFH: AO Construction                :      0.033u      0.000s      0.015w      1 calls
DFH: AO-Met. Contraction            :      0.000u      0.000s      0.005w      1 calls
HF: Form core H                     :      0.000u      0.000s      0.003w      1 calls
HF: Form S/X                        :      0.000u      0.000s      0.001w      1 calls
HF: Guess                           :      0.050u      0.000s      0.038w      1 calls
SAD Guess                           :      0.050u      0.000s      0.037w      1 calls
HF: Form G                          :      0.750u      0.017s      0.458w      7 calls
RV: Form V                          :      0.733u      0.017s      0.450w      7 calls
Properties                          :      0.250u      0.017s      0.115w   3136 calls
Functional                          :      0.283u      0.000s      0.174w   3136 calls
V_xc                                :      0.200u      0.000s      0.147w   3136 calls
JK: D                               :      0.000u      0.000s      0.000w      7 calls
JK: USO2AO                          :      0.000u      0.000s      0.000w      7 calls
JK: JK                              :      0.017u      0.000s      0.007w      7 calls
DFH: compute_JK()                   :      0.017u      0.000s      0.007w      7 calls
DFH: Grabbing AOs                   :      0.000u      0.000s      0.000w      7 calls
DFH: compute_J                      :      0.000u      0.000s      0.003w      7 calls
DFH: compute_K                      :      0.017u      0.000s      0.005w      7 calls
JK: AO2USO                          :      0.000u      0.000s      0.000w      7 calls
HF: Form F                          :      0.000u      0.000s      0.000w      7 calls
HF: Form D                          :      0.000u      0.000s      0.000w      7 calls
HF: DIIS                            :      0.000u      0.000s      0.005w      6 calls
DIISManager::add_entry              :      0.000u      0.000s      0.001w      6 calls
DIISManager::extrapolate            :      0.000u      0.000s      0.001w      6 calls
bMatrix setup                       :      0.000u      0.000s      0.000w      6 calls
bMatrix pseudoinverse               :      0.000u      0.000s      0.000w      6 calls
New vector                          :      0.000u      0.000s      0.000w      6 calls
HF: Form C                          :      0.000u      0.000s      0.002w      6 calls

--------------------------------------------------------------------------------------
V: Grid                             :      0.033u      0.017s      0.021w      1 calls
DFH: sparsity prep                  :      0.017u      0.000s      0.011w      1 calls
DFH: initialize()                   :      0.067u      0.000s      0.042w      1 calls
| DFH: AO Construction              :      0.033u      0.000s      0.015w      1 calls
| DFH: AO-Met. Contraction          :      0.000u      0.000s      0.005w      1 calls
HF: Form core H                     :      0.000u      0.000s      0.003w      1 calls
HF: Form S/X                        :      0.000u      0.000s      0.001w      1 calls
HF: Guess                           :      0.050u      0.000s      0.038w      1 calls
| SAD Guess                         :      0.050u      0.000s      0.037w      1 calls
HF: Form G                          :      0.750u      0.017s      0.458w      7 calls
| RV: Form V                        :      0.733u      0.017s      0.450w      7 calls
| | Properties                      :      0.250u      0.017s      0.115w   3136 calls
| | Functional                      :      0.283u      0.000s      0.174w   3136 calls
| | V_xc                            :      0.200u      0.000s      0.147w   3136 calls
| JK: D                             :      0.000u      0.000s      0.000w      7 calls
| JK: USO2AO                        :      0.000u      0.000s      0.000w      7 calls
| JK: JK                            :      0.017u      0.000s      0.007w      7 calls
| | DFH: compute_JK()               :      0.017u      0.000s      0.007w      7 calls
| | | DFH: Grabbing AOs             :      0.000u      0.000s      0.000w      7 calls
| | | DFH: compute_J                :      0.000u      0.000s      0.003w      7 calls
| | | DFH: compute_K                :      0.017u      0.000s      0.005w      7 calls
| JK: AO2USO                        :      0.000u      0.000s      0.000w      7 calls
HF: Form F                          :      0.000u      0.000s      0.000w      7 calls
HF: Form D                          :      0.000u      0.000s      0.000w      7 calls
HF: DIIS                            :      0.000u      0.000s      0.005w      6 calls
| DIISManager::add_entry            :      0.000u      0.000s      0.001w      6 calls
| DIISManager::extrapolate          :      0.000u      0.000s      0.001w      6 calls
| | bMatrix setup                   :      0.000u      0.000s      0.000w      6 calls
| | bMatrix pseudoinverse           :      0.000u      0.000s      0.000w      6 calls
| | New vector                      :      0.000u      0.000s      0.000w      6 calls
HF: Form C                          :      0.000u      0.000s      0.002w      6 calls

**************************************************************************************

Host: WE41476

Timers On : Wed Nov 24 22:02:54 2021
Timers Off: Wed Nov 24 22:02:56 2021

Wall Time:        1.62 seconds

                                                       Time (seconds)
Module                                       User      System        Wall        Calls
V: Grid                             :      0.017u      0.017s      0.021w      1 calls
DFH: sparsity prep                  :      0.017u      0.000s      0.011w      1 calls
DFH: initialize()                   :      0.067u      0.000s      0.043w      1 calls
DFH: AO Construction                :      0.017u      0.000s      0.015w      1 calls
DFH: AO-Met. Contraction            :      0.017u      0.000s      0.006w      1 calls
HF: Form core H                     :      0.000u      0.000s      0.006w      1 calls
HF: Form S/X                        :      0.000u      0.000s      0.001w      1 calls
HF: Guess                           :      0.050u      0.000s      0.038w      1 calls
SAD Guess                           :      0.050u      0.000s      0.037w      1 calls
HF: Form G                          :      0.750u      0.000s      0.453w      7 calls
RV: Form V                          :      0.733u      0.000s      0.445w      7 calls
Properties                          :      0.267u      0.000s      0.114w   3136 calls
Functional                          :      0.267u      0.000s      0.171w   3136 calls
V_xc                                :      0.183u      0.000s      0.145w   3136 calls
JK: D                               :      0.000u      0.000s      0.000w      7 calls
JK: USO2AO                          :      0.000u      0.000s      0.000w      7 calls
JK: JK                              :      0.017u      0.000s      0.008w      7 calls
DFH: compute_JK()                   :      0.017u      0.000s      0.008w      7 calls
DFH: Grabbing AOs                   :      0.000u      0.000s      0.000w      7 calls
DFH: compute_J                      :      0.000u      0.000s      0.003w      7 calls
DFH: compute_K                      :      0.017u      0.000s      0.005w      7 calls
JK: AO2USO                          :      0.000u      0.000s      0.000w      7 calls
HF: Form F                          :      0.000u      0.000s      0.000w      7 calls
HF: Form D                          :      0.000u      0.000s      0.000w      7 calls
HF: DIIS                            :      0.000u      0.017s      0.004w      6 calls
DIISManager::add_entry              :      0.000u      0.017s      0.001w      6 calls
DIISManager::extrapolate            :      0.000u      0.000s      0.001w      6 calls
bMatrix setup                       :      0.000u      0.000s      0.000w      6 calls
bMatrix pseudoinverse               :      0.000u      0.000s      0.000w      6 calls
New vector                          :      0.000u      0.000s      0.000w      6 calls
HF: Form C                          :      0.000u      0.000s      0.002w      6 calls

--------------------------------------------------------------------------------------
V: Grid                             :      0.017u      0.017s      0.021w      1 calls
DFH: sparsity prep                  :      0.017u      0.000s      0.011w      1 calls
DFH: initialize()                   :      0.067u      0.000s      0.043w      1 calls
| DFH: AO Construction              :      0.017u      0.000s      0.015w      1 calls
| DFH: AO-Met. Contraction          :      0.017u      0.000s      0.006w      1 calls
HF: Form core H                     :      0.000u      0.000s      0.006w      1 calls
HF: Form S/X                        :      0.000u      0.000s      0.001w      1 calls
HF: Guess                           :      0.050u      0.000s      0.038w      1 calls
| SAD Guess                         :      0.050u      0.000s      0.037w      1 calls
HF: Form G                          :      0.750u      0.000s      0.453w      7 calls
| RV: Form V                        :      0.733u      0.000s      0.445w      7 calls
| | Properties                      :      0.267u      0.000s      0.114w   3136 calls
| | Functional                      :      0.267u      0.000s      0.171w   3136 calls
| | V_xc                            :      0.183u      0.000s      0.145w   3136 calls
| JK: D                             :      0.000u      0.000s      0.000w      7 calls
| JK: USO2AO                        :      0.000u      0.000s      0.000w      7 calls
| JK: JK                            :      0.017u      0.000s      0.008w      7 calls
| | DFH: compute_JK()               :      0.017u      0.000s      0.008w      7 calls
| | | DFH: Grabbing AOs             :      0.000u      0.000s      0.000w      7 calls
| | | DFH: compute_J                :      0.000u      0.000s      0.003w      7 calls
| | | DFH: compute_K                :      0.017u      0.000s      0.005w      7 calls
| JK: AO2USO                        :      0.000u      0.000s      0.000w      7 calls
HF: Form F                          :      0.000u      0.000s      0.000w      7 calls
HF: Form D                          :      0.000u      0.000s      0.000w      7 calls
HF: DIIS                            :      0.000u      0.017s      0.004w      6 calls
| DIISManager::add_entry            :      0.000u      0.017s      0.001w      6 calls
| DIISManager::extrapolate          :      0.000u      0.000s      0.001w      6 calls
| | bMatrix setup                   :      0.000u      0.000s      0.000w      6 calls
| | bMatrix pseudoinverse           :      0.000u      0.000s      0.000w      6 calls
| | New vector                      :      0.000u      0.000s      0.000w      6 calls
HF: Form C                          :      0.000u      0.000s      0.002w      6 calls

**************************************************************************************

Host: WE41476

Timers On : Wed Nov 24 22:03:49 2021
Timers Off: Wed Nov 24 22:03:51 2021

Wall Time:        1.62 seconds

                                                       Time (seconds)
Module                                       User      System        Wall        Calls
V: Grid                             :      0.033u      0.000s      0.021w      1 calls
DFH: sparsity prep                  :      0.017u      0.000s      0.011w      1 calls
DFH: initialize()                   :      0.050u      0.017s      0.042w      1 calls
DFH: AO Construction                :      0.033u      0.000s      0.015w      1 calls
DFH: AO-Met. Contraction            :      0.000u      0.000s      0.005w      1 calls
HF: Form core H                     :      0.000u      0.017s      0.003w      1 calls
HF: Form S/X                        :      0.000u      0.000s      0.001w      1 calls
HF: Guess                           :      0.067u      0.000s      0.038w      1 calls
SAD Guess                           :      0.067u      0.000s      0.037w      1 calls
HF: Form G                          :      0.750u      0.017s      0.463w      7 calls
RV: Form V                          :      0.750u      0.017s      0.455w      7 calls
Properties                          :      0.283u      0.017s      0.116w   3136 calls
Functional                          :      0.217u      0.000s      0.175w   3136 calls
V_xc                                :      0.200u      0.000s      0.149w   3136 calls
JK: D                               :      0.000u      0.000s      0.000w      7 calls
JK: USO2AO                          :      0.000u      0.000s      0.000w      7 calls
JK: JK                              :      0.000u      0.000s      0.008w      7 calls
DFH: compute_JK()                   :      0.000u      0.000s      0.008w      7 calls
DFH: Grabbing AOs                   :      0.000u      0.000s      0.000w      7 calls
DFH: compute_J                      :      0.000u      0.000s      0.003w      7 calls
DFH: compute_K                      :      0.000u      0.000s      0.005w      7 calls
JK: AO2USO                          :      0.000u      0.000s      0.000w      7 calls
HF: Form F                          :      0.000u      0.000s      0.000w      7 calls
HF: Form D                          :      0.000u      0.000s      0.000w      7 calls
HF: DIIS                            :      0.000u      0.000s      0.005w      6 calls
DIISManager::add_entry              :      0.000u      0.000s      0.001w      6 calls
DIISManager::extrapolate            :      0.000u      0.000s      0.001w      6 calls
bMatrix setup                       :      0.000u      0.000s      0.000w      6 calls
bMatrix pseudoinverse               :      0.000u      0.000s      0.000w      6 calls
New vector                          :      0.000u      0.000s      0.000w      6 calls
HF: Form C                          :      0.000u      0.000s      0.002w      6 calls

--------------------------------------------------------------------------------------
V: Grid                             :      0.033u      0.000s      0.021w      1 calls
DFH: sparsity prep                  :      0.017u      0.000s      0.011w      1 calls
DFH: initialize()                   :      0.050u      0.017s      0.042w      1 calls
| DFH: AO Construction              :      0.033u      0.000s      0.015w      1 calls
| DFH: AO-Met. Contraction          :      0.000u      0.000s      0.005w      1 calls
HF: Form core H                     :      0.000u      0.017s      0.003w      1 calls
HF: Form S/X                        :      0.000u      0.000s      0.001w      1 calls
HF: Guess                           :      0.067u      0.000s      0.038w      1 calls
| SAD Guess                         :      0.067u      0.000s      0.037w      1 calls
HF: Form G                          :      0.750u      0.017s      0.463w      7 calls
| RV: Form V                        :      0.750u      0.017s      0.455w      7 calls
| | Properties                      :      0.283u      0.017s      0.116w   3136 calls
| | Functional                      :      0.217u      0.000s      0.175w   3136 calls
| | V_xc                            :      0.200u      0.000s      0.149w   3136 calls
| JK: D                             :      0.000u      0.000s      0.000w      7 calls
| JK: USO2AO                        :      0.000u      0.000s      0.000w      7 calls
| JK: JK                            :      0.000u      0.000s      0.008w      7 calls
| | DFH: compute_JK()               :      0.000u      0.000s      0.008w      7 calls
| | | DFH: Grabbing AOs             :      0.000u      0.000s      0.000w      7 calls
| | | DFH: compute_J                :      0.000u      0.000s      0.003w      7 calls
| | | DFH: compute_K                :      0.000u      0.000s      0.005w      7 calls
| JK: AO2USO                        :      0.000u      0.000s      0.000w      7 calls
HF: Form F                          :      0.000u      0.000s      0.000w      7 calls
HF: Form D                          :      0.000u      0.000s      0.000w      7 calls
HF: DIIS                            :      0.000u      0.000s      0.005w      6 calls
| DIISManager::add_entry            :      0.000u      0.000s      0.001w      6 calls
| DIISManager::extrapolate          :      0.000u      0.000s      0.001w      6 calls
| | bMatrix setup                   :      0.000u      0.000s      0.000w      6 calls
| | bMatrix pseudoinverse           :      0.000u      0.000s      0.000w      6 calls
| | New vector                      :      0.000u      0.000s      0.000w      6 calls
HF: Form C                          :      0.000u      0.000s      0.002w      6 calls

**************************************************************************************

Host: WE41476

Timers On : Wed Nov 24 22:05:31 2021
Timers Off: Wed Nov 24 22:05:33 2021

Wall Time:        1.65 seconds

                                                       Time (seconds)
Module                                       User      System        Wall        Calls
V: Grid                             :      0.017u      0.000s      0.021w      1 calls
DFH: sparsity prep                  :      0.017u      0.000s      0.011w      1 calls
DFH: initialize()                   :      0.067u      0.017s      0.042w      1 calls
DFH: AO Construction                :      0.033u      0.000s      0.015w      1 calls
DFH: AO-Met. Contraction            :      0.000u      0.000s      0.005w      1 calls
HF: Form core H                     :      0.000u      0.000s      0.003w      1 calls
HF: Form S/X                        :      0.000u      0.000s      0.001w      1 calls
HF: Guess                           :      0.050u      0.017s      0.038w      1 calls
SAD Guess                           :      0.050u      0.017s      0.037w      1 calls
HF: Form G                          :      0.750u      0.017s      0.461w      7 calls
RV: Form V                          :      0.733u      0.017s      0.453w      7 calls
Properties                          :      0.267u      0.000s      0.116w   3136 calls
Functional                          :      0.233u      0.000s      0.174w   3136 calls
V_xc                                :      0.233u      0.000s      0.149w   3136 calls
JK: D                               :      0.000u      0.000s      0.000w      7 calls
JK: USO2AO                          :      0.000u      0.000s      0.000w      7 calls
JK: JK                              :      0.017u      0.000s      0.008w      7 calls
DFH: compute_JK()                   :      0.017u      0.000s      0.008w      7 calls
DFH: Grabbing AOs                   :      0.000u      0.000s      0.000w      7 calls
DFH: compute_J                      :      0.000u      0.000s      0.002w      7 calls
DFH: compute_K                      :      0.017u      0.000s      0.005w      7 calls
JK: AO2USO                          :      0.000u      0.000s      0.000w      7 calls
HF: Form F                          :      0.000u      0.000s      0.000w      7 calls
HF: Form D                          :      0.000u      0.000s      0.000w      7 calls
HF: DIIS                            :      0.000u      0.000s      0.005w      6 calls
DIISManager::add_entry              :      0.000u      0.000s      0.001w      6 calls
DIISManager::extrapolate            :      0.000u      0.000s      0.001w      6 calls
bMatrix setup                       :      0.000u      0.000s      0.000w      6 calls
bMatrix pseudoinverse               :      0.000u      0.000s      0.000w      6 calls
New vector                          :      0.000u      0.000s      0.000w      6 calls
HF: Form C                          :      0.000u      0.000s      0.002w      6 calls

--------------------------------------------------------------------------------------
V: Grid                             :      0.017u      0.000s      0.021w      1 calls
DFH: sparsity prep                  :      0.017u      0.000s      0.011w      1 calls
DFH: initialize()                   :      0.067u      0.017s      0.042w      1 calls
| DFH: AO Construction              :      0.033u      0.000s      0.015w      1 calls
| DFH: AO-Met. Contraction          :      0.000u      0.000s      0.005w      1 calls
HF: Form core H                     :      0.000u      0.000s      0.003w      1 calls
HF: Form S/X                        :      0.000u      0.000s      0.001w      1 calls
HF: Guess                           :      0.050u      0.017s      0.038w      1 calls
| SAD Guess                         :      0.050u      0.017s      0.037w      1 calls
HF: Form G                          :      0.750u      0.017s      0.461w      7 calls
[...]
| RV: Form V                        :      7.033u      0.067s      1.147w      8 calls
| | Properties                      :      1.248p                           9712 calls
| | Functional                      :      1.158p                           9712 calls
| | V_xc                            :      2.112p                           9712 calls
| JK: D                             :      0.017u      0.000s      0.000w      8 calls
| JK: USO2AO                        :      0.017u      0.000s      0.000w      8 calls
| JK: JK                            :      0.017u      0.000s      0.012w      8 calls
| | DFH: compute_JK()               :      0.017u      0.000s      0.012w      8 calls
| | | DFH: Grabbing AOs             :      0.000u      0.000s      0.000w      8 calls
| | | DFH: compute_J                :      0.017u      0.000s      0.007w      8 calls
| JK: AO2USO                        :      0.000u      0.000s      0.000w      8 calls
HF: Form F                          :      0.000u      0.000s      0.001w      8 calls
HF: Form D                          :      0.000u      0.000s      0.000w      8 calls
HF: DIIS                            :      0.067u      0.000s      0.018w      7 calls
| DIISManager::add_entry            :      0.000u      0.000s      0.002w      7 calls
| DIISManager::extrapolate          :      0.000u      0.000s      0.003w      7 calls
| | bMatrix setup                   :      0.000u      0.000s      0.001w      7 calls
| | bMatrix pseudoinverse           :      0.000u      0.000s      0.000w      7 calls
| | New vector                      :      0.000u      0.000s      0.001w      7 calls
HF: Form C                          :      0.100u      0.000s      0.016w      7 calls
Libint2ERI::Libint2ERI              :      0.117u      0.000s      0.017w      2 calls

**************************************************************************************

Host: WE41476

Timers On : Sat Dec  4 01:25:03 2021
Timers Off: Sat Dec  4 01:25:12 2021

Wall Time:        8.71 seconds

                                                       Time (seconds)
Module                                       User      System        Wall        Calls
V: Grid                             :      0.850u      0.050s      0.144w      1 calls
DFH: sparsity prep                  :      0.033u      0.017s      0.028w      1 calls
Libint2ERI::Libint2ERI              :      0.200u      0.017s      0.053w      8 calls
DFH: initialize()                   :      0.633u      0.083s      0.121w      1 calls
DFH: AO Construction                :      0.217u      0.017s      0.036w      1 calls
DFH: AO-Met. Contraction            :      0.083u      0.017s      0.016w      1 calls
HF: Form core H                     :      0.033u      0.000s      0.012w      1 calls
HF: Form S/X                        :      0.017u      0.000s      0.002w      1 calls
HF: Guess                           :      0.350u      0.050s      0.072w      1 calls
SAD Guess                           :      0.333u      0.050s      0.070w      1 calls
HF: Form G                          :      7.200u      0.067s      1.195w      8 calls
RV: Form V                          :      7.133u      0.067s      1.180w      8 calls
Properties                          :      1.265p                           9712 calls
Functional                          :      1.222p                           9712 calls
V_xc                                :      2.166p                           9712 calls
JK: D                               :      0.000u      0.000s      0.001w      8 calls
JK: USO2AO                          :      0.017u      0.000s      0.000w      8 calls
JK: JK                              :      0.050u      0.000s      0.012w      8 calls
DFH: compute_JK()                   :      0.050u      0.000s      0.012w      8 calls
DFH: Grabbing AOs                   :      0.000u      0.000s      0.000w      8 calls
DFH: compute_J                      :      0.050u      0.000s      0.008w      8 calls
JK: AO2USO                          :      0.000u      0.000s      0.000w      8 calls
HF: Form F                          :      0.000u      0.000s      0.001w      8 calls
HF: Form D                          :      0.000u      0.000s      0.000w      8 calls
HF: DIIS                            :      0.100u      0.000s      0.022w      7 calls
DIISManager::add_entry              :      0.000u      0.000s      0.003w      7 calls
DIISManager::extrapolate            :      0.033u      0.000s      0.005w      7 calls
bMatrix setup                       :      0.017u      0.000s      0.002w      7 calls
bMatrix pseudoinverse               :      0.000u      0.000s      0.000w      7 calls
New vector                          :      0.017u      0.000s      0.002w      7 calls
HF: Form C                          :      0.067u      0.000s      0.019w      7 calls

--------------------------------------------------------------------------------------
V: Grid                             :      0.850u      0.050s      0.144w      1 calls
DFH: sparsity prep                  :      0.033u      0.017s      0.028w      1 calls
| Libint2ERI::Libint2ERI            :      0.017u      0.017s      0.020w      1 calls
DFH: initialize()                   :      0.633u      0.083s      0.121w      1 calls
| Libint2ERI::Libint2ERI            :      0.083u      0.000s      0.015w      5 calls
| DFH: AO Construction              :      0.217u      0.017s      0.036w      1 calls
| DFH: AO-Met. Contraction          :      0.083u      0.017s      0.016w      1 calls
HF: Form core H                     :      0.033u      0.000s      0.012w      1 calls
HF: Form S/X                        :      0.017u      0.000s      0.002w      1 calls
HF: Guess                           :      0.350u      0.050s      0.072w      1 calls
| SAD Guess                         :      0.333u      0.050s      0.070w      1 calls
HF: Form G                          :      7.200u      0.067s      1.195w      8 calls
| RV: Form V                        :      7.133u      0.067s      1.180w      8 calls
| | Properties                      :      1.265p                           9712 calls
| | Functional                      :      1.222p                           9712 calls
| | V_xc                            :      2.166p                           9712 calls
| JK: D                             :      0.000u      0.000s      0.001w      8 calls
| JK: USO2AO                        :      0.017u      0.000s      0.000w      8 calls
| JK: JK                            :      0.050u      0.000s      0.012w      8 calls
| | DFH: compute_JK()               :      0.050u      0.000s      0.012w      8 calls
| | | DFH: Grabbing AOs             :      0.000u      0.000s      0.000w      8 calls
| | | DFH: compute_J                :      0.050u      0.000s      0.008w      8 calls
| JK: AO2USO                        :      0.000u      0.000s      0.000w      8 calls
HF: Form F                          :      0.000u      0.000s      0.001w      8 calls
HF: Form D                          :      0.000u      0.000s      0.000w      8 calls
HF: DIIS                            :      0.100u      0.000s      0.022w      7 calls
| DIISManager::add_entry            :      0.000u      0.000s      0.003w      7 calls
| DIISManager::extrapolate          :      0.033u      0.000s      0.005w      7 calls
| | bMatrix setup                   :      0.017u      0.000s      0.002w      7 calls
| | bMatrix pseudoinverse           :      0.000u      0.000s      0.000w      7 calls
| | New vector                      :      0.017u      0.000s      0.002w      7 calls
HF: Form C                          :      0.067u      0.000s      0.019w      7 calls
Libint2ERI::Libint2ERI              :      0.100u      0.000s      0.018w      2 calls

**************************************************************************************

Host: WE41476

Timers On : Sat Dec  4 01:29:09 2021
Timers Off: Sat Dec  4 01:29:14 2021

Wall Time:        5.60 seconds

                                                       Time (seconds)
Module                                       User      System        Wall        Calls
V: Grid                             :      0.500u      0.033s      0.087w      1 calls
DFH: sparsity prep                  :      0.017u      0.017s      0.022w      1 calls
Libint2ERI::Libint2ERI              :      0.133u      0.017s      0.037w      8 calls
DFH: initialize()                   :      0.500u      0.083s      0.103w      1 calls
DFH: AO Construction                :      0.100u      0.000s      0.017w      1 calls
DFH: AO-Met. Contraction            :      0.067u      0.017s      0.012w      1 calls
HF: Form core H                     :      0.033u      0.000s      0.006w      1 calls
HF: Form S/X                        :      0.017u      0.000s      0.002w      1 calls
HF: Guess                           :      0.233u      0.033s      0.048w      1 calls
SAD Guess                           :      0.233u      0.033s      0.047w      1 calls
HF: Form G                          :      4.717u      0.000s      0.709w      8 calls
RV: Form V                          :      4.600u      0.000s      0.701w      8 calls
Properties                          :      0.745p                           9712 calls
Functional                          :      0.654p                           9712 calls
V_xc                                :      1.380p                           9712 calls
JK: D                               :      0.000u      0.000s      0.000w      8 calls
JK: USO2AO                          :      0.033u      0.000s      0.000w      8 calls
JK: JK                              :      0.050u      0.000s      0.007w      8 calls
DFH: compute_JK()                   :      0.050u      0.000s      0.007w      8 calls
DFH: Grabbing AOs                   :      0.000u      0.000s      0.000w      8 calls
DFH: compute_J                      :      0.017u      0.000s      0.005w      8 calls
JK: AO2USO                          :      0.000u      0.000s      0.000w      8 calls
HF: Form F                          :      0.000u      0.000s      0.000w      8 calls
HF: Form D                          :      0.000u      0.000s      0.000w      8 calls
HF: DIIS                            :      0.033u      0.017s      0.014w      7 calls
DIISManager::add_entry              :      0.000u      0.017s      0.002w      7 calls
DIISManager::extrapolate            :      0.000u      0.000s      0.002w      7 calls
bMatrix setup                       :      0.000u      0.000s      0.001w      7 calls
bMatrix pseudoinverse               :      0.000u      0.000s      0.000w      7 calls
New vector                          :      0.000u      0.000s      0.001w      7 calls
HF: Form C                          :      0.083u      0.000s      0.009w      7 calls

--------------------------------------------------------------------------------------
V: Grid                             :      0.500u      0.033s      0.087w      1 calls
DFH: sparsity prep                  :      0.017u      0.017s      0.022w      1 calls
| Libint2ERI::Libint2ERI            :      0.017u      0.017s      0.016w      1 calls
DFH: initialize()                   :      0.500u      0.083s      0.103w      1 calls
| Libint2ERI::Libint2ERI            :      0.067u      0.000s      0.011w      5 calls
| DFH: AO Construction              :      0.100u      0.000s      0.017w      1 calls
| DFH: AO-Met. Contraction          :      0.067u      0.017s      0.012w      1 calls
HF: Form core H                     :      0.033u      0.000s      0.006w      1 calls
HF: Form S/X                        :      0.017u      0.000s      0.002w      1 calls
HF: Guess                           :      0.233u      0.033s      0.048w      1 calls
| SAD Guess                         :      0.233u      0.033s      0.047w      1 calls
HF: Form G                          :      4.717u      0.000s      0.709w      8 calls
| RV: Form V                        :      4.600u      0.000s      0.701w      8 calls
| | Properties                      :      0.745p                           9712 calls
| | Functional                      :      0.654p                           9712 calls
| | V_xc                            :      1.380p                           9712 calls
| JK: D                             :      0.000u      0.000s      0.000w      8 calls
| JK: USO2AO                        :      0.033u      0.000s      0.000w      8 calls
| JK: JK                            :      0.050u      0.000s      0.007w      8 calls
| | DFH: compute_JK()               :      0.050u      0.000s      0.007w      8 calls
| | | DFH: Grabbing AOs             :      0.000u      0.000s      0.000w      8 calls
| | | DFH: compute_J                :      0.017u      0.000s      0.005w      8 calls
| JK: AO2USO                        :      0.000u      0.000s      0.000w      8 calls
HF: Form F                          :      0.000u      0.000s      0.000w      8 calls
HF: Form D                          :      0.000u      0.000s      0.000w      8 calls
HF: DIIS                            :      0.033u      0.017s      0.014w      7 calls
| DIISManager::add_entry            :      0.000u      0.017s      0.002w      7 calls
| DIISManager::extrapolate          :      0.000u      0.000s      0.002w      7 calls
| | bMatrix setup                   :      0.000u      0.000s      0.001w      7 calls
| | bMatrix pseudoinverse           :      0.000u      0.000s      0.000w      7 calls
| | New vector                      :      0.000u      0.000s      0.001w      7 calls
HF: Form C                          :      0.083u      0.000s      0.009w      7 calls
Libint2ERI::Libint2ERI              :      0.050u      0.000s      0.009w      2 calls

**************************************************************************************

Host: WE41476

Timers On : Sat Dec  4 01:29:28 2021
Timers Off: Sat Dec  4 01:29:33 2021

Wall Time:        5.11 seconds

                                                       Time (seconds)
Module                                       User      System        Wall        Calls
V: Grid                             :      0.500u      0.017s      0.082w      1 calls
DFH: sparsity prep                  :      0.033u      0.000s      0.018w      1 calls
Libint2ERI::Libint2ERI              :      0.133u      0.000s      0.034w      8 calls
DFH: initialize()                   :      0.367u      0.050s      0.070w      1 calls
DFH: AO Construction                :      0.117u      0.000s      0.019w      1 calls
DFH: AO-Met. Contraction            :      0.050u      0.017s      0.010w      1 calls
HF: Form core H                     :      0.033u      0.017s      0.008w      1 calls
HF: Form S/X                        :      0.000u      0.000s      0.002w      1 calls
HF: Guess                           :      0.267u      0.017s      0.046w      1 calls
SAD Guess                           :      0.250u      0.017s      0.045w      1 calls
HF: Form G                          :      4.733u      0.017s      0.722w      8 calls
RV: Form V                          :      4.667u      0.017s      0.713w      8 calls
Properties                          :      0.752p                           9712 calls
Functional                          :      0.673p                           9712 calls
V_xc                                :      1.395p                           9712 calls
JK: D                               :      0.000u      0.000s      0.000w      8 calls
JK: USO2AO                          :      0.000u      0.000s      0.000w      8 calls
JK: JK                              :      0.067u      0.000s      0.007w      8 calls
DFH: compute_JK()                   :      0.050u      0.000s      0.007w      8 calls
DFH: Grabbing AOs                   :      0.000u      0.000s      0.000w      8 calls
DFH: compute_J                      :      0.033u      0.000s      0.005w      8 calls
JK: AO2USO                          :      0.000u      0.000s      0.000w      8 calls
HF: Form F                          :      0.000u      0.000s      0.000w      8 calls
HF: Form D                          :      0.000u      0.000s      0.000w      8 calls
HF: DIIS                            :      0.067u      0.000s      0.012w      7 calls
DIISManager::add_entry              :      0.000u      0.000s      0.002w      7 calls
DIISManager::extrapolate            :      0.033u      0.000s      0.002w      7 calls
bMatrix setup                       :      0.000u      0.000s      0.001w      7 calls
bMatrix pseudoinverse               :      0.033u      0.000s      0.000w      7 calls
New vector                          :      0.000u      0.000s      0.001w      7 calls
HF: Form C                          :      0.033u      0.000s      0.007w      7 calls

--------------------------------------------------------------------------------------
V: Grid                             :      0.500u      0.017s      0.082w      1 calls
DFH: sparsity prep                  :      0.033u      0.000s      0.018w      1 calls
| Libint2ERI::Libint2ERI            :      0.017u      0.000s      0.014w      1 calls
DFH: initialize()                   :      0.367u      0.050s      0.070w      1 calls
| Libint2ERI::Libint2ERI            :      0.050u      0.000s      0.008w      5 calls
| DFH: AO Construction              :      0.117u      0.000s      0.019w      1 calls
| DFH: AO-Met. Contraction          :      0.050u      0.017s      0.010w      1 calls
HF: Form core H                     :      0.033u      0.017s      0.008w      1 calls
HF: Form S/X                        :      0.000u      0.000s      0.002w      1 calls
HF: Guess                           :      0.267u      0.017s      0.046w      1 calls
| SAD Guess                         :      0.250u      0.017s      0.045w      1 calls
HF: Form G                          :      4.733u      0.017s      0.722w      8 calls
| RV: Form V                        :      4.667u      0.017s      0.713w      8 calls
| | Properties                      :      0.752p                           9712 calls
| | Functional                      :      0.673p                           9712 calls
| | V_xc                            :      1.395p                           9712 calls
| JK: D                             :      0.000u      0.000s      0.000w      8 calls
| JK: USO2AO                        :      0.000u      0.000s      0.000w      8 calls
| JK: JK                            :      0.067u      0.000s      0.007w      8 calls
| | DFH: compute_JK()               :      0.050u      0.000s      0.007w      8 calls
| | | DFH: Grabbing AOs             :      0.000u      0.000s      0.000w      8 calls
| | | DFH: compute_J                :      0.033u      0.000s      0.005w      8 calls
| JK: AO2USO                        :      0.000u      0.000s      0.000w      8 calls
HF: Form F                          :      0.000u      0.000s      0.000w      8 calls
HF: Form D                          :      0.000u      0.000s      0.000w      8 calls
HF: DIIS                            :      0.067u      0.000s      0.012w      7 calls
| DIISManager::add_entry            :      0.000u      0.000s      0.002w      7 calls
| DIISManager::extrapolate          :      0.033u      0.000s      0.002w      7 calls
| | bMatrix setup                   :      0.000u      0.000s      0.001w      7 calls
| | bMatrix pseudoinverse           :      0.033u      0.000s      0.000w      7 calls
| | New vector                      :      0.000u      0.000s      0.001w      7 calls
HF: Form C                          :      0.033u      0.000s      0.007w      7 calls
Libint2ERI::Libint2ERI              :      0.067u      0.000s      0.012w      2 calls

**************************************************************************************
